# vtk DataFile Version 3.0
vtk output
ASCII
DATASET UNSTRUCTURED_GRID
POINTS 8612 float
90.955 41.908 28.027 107.76 61.593 56.887 108.63 59.834 56.042 
100.43 81.811 33.655 99.543 70.539 56.833 91.888 82.032 10.896 
94.015 82.166 14.497 93.927 84.534 14.769 94.897 83.192 15.755 
95.664 80.614 20.999 95.182 81.176 18.726 89.555 15.155 4.0022 
96.764 33.316 14.059 96.544 30.964 13.499 94.802 32.513 20.486 
95.629 31.791 18.101 96.69 33.984 19.313 94.122 33.295 22.147 
92.54 33.42 23.484 95.954 32.3 9.2929 96.105 31.588 6.5128 
98.949 67.788 56.045 96.039 61.578 52.283 93.887 59.697 50.41 
101.93 80.719 40.9 94.993 84.988 21.729 96.373 83.96 22.06 
96.061 82.935 20.248 89.621 83.344 6.0252 97.765 82.981 23.91 
99.831 81.764 35.187 99.08 81.631 37.462 101.52 80.24 38.312 
101.17 80.115 36.038 104.03 79.086 42.376 76.261 17.774 3.9256 
102.5 76.29 42.026 102.16 78.333 40.019 93.679 59.503 48.206 
94.653 61.055 49.45 89.61 52.217 38.292 89.496 54.092 40.529 
97.973 65.556 52.284 106.53 76.707 47.591 106.68 74.022 49.937 
106.19 71.902 52.084 105.88 76.557 50.456 110.7 67.018 53.758 
90.725 42.03 30.397 93.716 36.597 24.389 92.608 34.732 26.029 
90.89 36.567 28.09 91.681 39.246 28.403 90.676 45.505 31.805 
90.674 43.771 29.686 90.592 47.079 32.966 90.284 49.252 33.065 
88.443 44.472 33.105 89.782 42.965 31.643 87.709 47.623 36.423 
87.482 46.21 34.561 86.761 49.781 37.519 91.245 57.041 47.364 
92.501 58.474 46.261 91.322 56.295 45.077 88.481 56.244 44.923 
91.997 59.54 49.974 88.418 53.506 41.797 89.964 54.792 43.626 
89.877 50.01 37.726 88.517 50.441 39.314 99.721 81.78 28.033 
99.568 79.706 29.337 91.436 84.729 11.134 94.634 84.691 19.305 
95.34 63.545 54.52 95.466 65.559 55.323 96.758 67.21 56.16 
89.57 57.296 46.723 89.908 46.279 35.001 90.159 40.276 29.713 
109.72 65.672 55.786 89.084 52.225 40.32 104.59 76.521 43.533 
98.394 83.084 26.536 96.965 63.237 52.11 100.85 79.859 33.681 
89.892 48.145 36.364 93.12 83.47 12.657 95.588 83.286 18.013 
96.013 31.589 15.77 96.751 33.762 16.677 95.727 34.559 20.859 
93.437 61.446 52.468 96.754 63.57 53.939 90.66 83.57 8.5676 
104.77 70.912 52.528 102.65 69.526 53.722 100.9 68.574 55.007 
105.64 75.539 45.945 106.01 74.977 52.711 105.37 73.064 54.485 
101.83 71.028 56.276 94.769 34.926 22.487 93.695 34.88 24.266 
88.319 49.895 37.622 105.64 78.275 45.477 100.21 82.033 30.852 
100.42 80.092 31.362 92.92 37.78 26.674 103.93 71.942 55.421 
97.745 65.78 54.874 57.975 45.458 3.4707 92.091 15.807 3.4707 
98.111 21.245 3.668 97.326 20.369 3.4707 88.991 14.764 3.4707 
87.906 84.408 3.4707 106.96 77.862 3.4707 76.728 17.289 3.4707 
74.784 18.502 3.4707 100.74 42.438 3.4707 49.439 77.97 3.4707 
82.377 55.256 3.4707 108.98 78.087 3.4707 82.72 57.338 3.4707 
125.72 54.651 3.4707 79.725 19.212 3.4707 96.266 32.267 3.4707 
123.94 66.144 3.4707 114.83 30.741 3.4707 104.91 40.835 3.4707 
73.406 19.74 3.4707 70.343 23.401 3.4707 71.308 22.043 3.4707 
69.758 28.634 3.4707 68.498 31.129 3.4707 60.253 41.372 3.4707 
115.16 86.718 3.4707 136.69 65.552 3.4707 90.132 19.891 3.4707 
83.539 63.318 3.4707 91.925 70.971 3.4707 91.267 70.196 3.4707 
88.487 64.582 3.4707 88.11 62.401 3.4707 83.82 65.586 3.4707 
89.486 67.436 3.4707 86.821 74.734 3.4707 85.493 71.683 3.4707 
88.314 19.217 3.4707 96.388 26.826 3.4707 94.705 23.77 3.4707 
85.23 15.013 3.4707 85.314 18.704 3.4707 100.45 23.209 3.4707 
96.845 29.524 3.4707 137.12 62.839 3.4707 135.51 68.608 3.4707 
137.29 60.445 3.4707 137.33 58.031 3.4707 107.47 40.15 3.4707 
115.65 40.884 3.4707 113.16 40.024 3.4707 121.16 45.61 3.4707 
118.43 42.682 3.4707 110.38 39.77 3.4707 117.23 41.747 3.4707 
120.39 32.317 3.4707 124.26 34.369 3.4707 122.53 33.35 3.4707 
126.2 35.687 3.4707 62.03 46.861 3.4707 63.111 44.036 3.4707 
61.321 48.748 3.4707 60.61 50.61 3.4707 65.468 38.495 3.4707 
67.396 33.767 3.4707 62.574 37.131 3.4707 64.282 41.247 3.4707 
63.933 34.417 3.4707 66.284 36.518 3.4707 61.274 39.457 3.4707 
63.775 42.376 3.4707 123.82 82.747 3.4707 119.74 85.115 3.4707 
125.28 81.565 3.4707 108.11 87.8 3.4707 110.79 87.373 3.4707 
113.09 87.067 3.4707 117.65 85.979 3.4707 69.936 87.015 3.4707 
72.357 87.189 3.4707 83.667 86.214 3.4707 88.602 90.082 3.4707 
85.481 90.228 3.4707 77.722 91.348 3.4707 79.444 86.965 3.4707 
75.02 91.746 3.4707 77.021 87.11 3.4707 74.541 87.177 3.4707 
84.415 68.529 3.4707 89.219 82.261 3.4707 88.999 79.784 3.4707 
85.845 85.462 3.4707 90.884 90.019 3.4707 82.987 90.493 3.4707 
69.834 92.143 3.4707 72.592 91.852 3.4707 62.291 83.792 3.4707 
58.254 80.343 3.4707 64.363 85.112 3.4707 64.535 91.725 3.4707 
61.957 90.698 3.4707 67.195 92.097 3.4707 66.837 86.28 3.4707 
57.422 79.343 3.4707 110.99 77.954 3.4707 113.07 77.459 3.4707 
96.413 89.516 3.4707 102.3 88.383 3.4707 95.401 74.162 3.4707 
97.536 75.519 3.4707 126.79 80.109 3.4707 128.44 78.534 3.4707 
88.47 57.579 3.4707 88.989 55.395 3.4707 89.727 53.212 3.4707 
90.774 51.005 3.4707 82.143 52.515 3.4707 83.183 46.58 3.4707 
59.943 52.226 3.4707 67.08 28.378 3.4707 68.59 25.812 3.4707 
72.859 23.984 3.4707 125.76 58.508 3.4707 125.9 56.789 3.4707 
124.95 62.996 3.4707 125.46 60.442 3.4707 119.59 73.141 3.4707 
122.5 69.154 3.4707 115.71 76.163 3.4707 118.1 74.549 3.4707 
93.821 47.058 3.4707 97.181 44.322 3.4707 95.678 45.581 3.4707 
90.757 38.139 3.4707 94.691 34.421 3.4707 86.011 42.561 3.4707 
87.367 41.155 3.4707 84.819 44.011 3.4707 102.78 41.501 3.4707 
89.189 39.484 3.4707 135.44 49.735 3.4707 134.54 47.256 3.4707 
133.98 45.727 3.4707 136.36 52.628 3.4707 123.71 49.757 3.4707 
129.3 38.162 3.4707 122.58 47.66 3.4707 131.88 41.466 3.4707 
130.61 39.596 3.4707 112.44 30.23 3.4707 110.16 29.395 3.4707 
107.56 27.99 3.4707 55.698 86.804 3.4707 50.837 81.219 3.4707 
54.279 85.572 3.4707 55.687 62.562 3.4707 54.837 65.13 3.4707 
56.886 59.612 3.4707 57.995 56.846 3.4707 54.325 69.671 3.4707 
54.429 67.335 3.4707 54.901 74.988 3.4707 136.99 55.472 3.4707 
124.98 52.435 3.4707 102.83 25.01 3.4707 78.742 16.604 3.4707 
82.45 15.591 3.4707 82.33 18.761 3.4707 80.811 15.992 3.4707 
132.4 73.867 3.4707 131.27 75.433 3.4707 129.96 76.888 3.4707 
55.818 76.938 3.4707 59.567 81.605 3.4707 83.266 61.208 3.4707 
82.98 59.097 3.4707 101.27 77.005 3.4707 80.853 90.794 3.4707 
81.575 86.623 3.4707 88.117 77.589 3.4707 99.216 76.342 3.4707 
54.347 72.38 3.4707 52.757 84.135 3.4707 133.16 43.618 3.4707 
127.81 36.912 3.4707 98.925 43.314 3.4707 92.612 36.484 3.4707 
92.326 48.768 3.4707 121.07 71.362 3.4707 77.12 20.248 3.4707 
71.043 26.513 3.4707 65.573 31.115 3.4707 82.272 49.8 3.4707 
88.096 60.116 3.4707 99.607 88.819 3.4707 121.64 84.219 3.4707 
134.04 71.361 3.4707 92.886 71.959 3.4707 92.294 20.868 3.4707 
93.511 89.887 3.4707 57.923 88.468 3.4707 105.19 88.152 3.4707 
59.071 43.391 3.4707 117.75 31.338 3.4707 59.068 54.261 3.4707 
104.1 77.493 3.4707 56.692 78.377 3.4707 105.26 26.541 3.4707 
59.753 89.631 3.4707 93.769 22.557 3.4707 60.811 82.627 3.4707 
95.591 24.941 3.4707 49.525 65.496 3.4707 49.108 67.972 3.4707 
95.678 18.893 3.4707 94.058 17.422 3.4707 50.465 62.554 3.4707 
51.265 60.015 3.4707 55.897 49.358 3.4707 57 47.437 3.4707 
48.917 73.029 3.4707 49.061 75.518 3.4707 48.926 70.576 3.4707 
54.926 51.469 3.4707 52.4 57.172 3.4707 53.678 53.934 3.4707 
59.666 66.979 20.357 95.798 42.334 41.76 78.073 56.754 36.245 
71.031 38.616 14.562 68.255 58.589 23.271 81.883 24.501 9.4604 
103.74 73.05 55.539 83.858 64.342 4.9768 88.281 64.149 48.805 
68.371 31.913 9.5656 96.661 64.775 50.496 69.689 43.022 15.998 
93.826 60.071 21.311 79.272 52.369 34.878 106.64 63.051 56.289 
95.328 33.761 5.8224 82.989 52.548 34.775 82.466 55.185 40.881 
78.481 37.093 22.093 74.172 66.949 31.641 96.942 84.283 25.447 
110.05 78.176 9.9153 90.966 52.713 5.6562 116.99 44.802 36.567 
116.09 45.558 38.659 114.94 46.658 40.513 112.2 43.58 37.748 
117.58 41.093 40.179 114.63 43.908 37.195 116.32 39.756 38.973 
115.41 43.365 35.037 94.034 89.397 16.945 93.042 89.217 11.599 
96.025 88.998 15.216 91.459 89.582 15.816 91.11 89.607 13.15 
92.225 66.426 41.669 84.487 78.083 49.699 106.27 79.367 51.494 
101.99 78.931 50.268 112.9 65.58 61.68 68.57 44.444 14.309 
67.017 42.581 16.447 69.101 45.176 16.479 69.1 42.244 13.704 
70.454 44.082 18.578 70.369 40.754 15.239 68.807 41.223 18.125 
71.006 41.633 17.509 59.377 57.876 15.038 59.944 55.633 14.378 
61.399 54.285 15.801 60.814 56.53 16.435 58.858 54.656 12.384 
60.529 53.392 13.726 65.383 63.791 20.788 66.544 62.394 22.247 
64.666 60.651 23.846 63.146 61.945 22.521 63.62 59.553 22.106 
65.654 61.377 20.31 62.188 60.854 20.75 66.834 59.952 21.853 
64.793 60.439 18.312 62.673 58.492 20.287 64.106 57.173 21.671 
65.995 58.995 19.853 69.706 57.078 27.419 71.47 55.895 28.634 
72.101 53.671 28.121 69.628 51.292 24.979 69.138 53.608 25.473 
73.543 55.114 26.885 68.494 55.934 25.819 70.333 54.943 24.134 
72.108 53.793 25.357 71.649 56.176 25.755 72.221 32.266 14.587 
71.735 31.202 12.967 70.769 33.376 13.817 71.837 34.134 15.927 
75.371 39.756 21.428 77.404 39.018 22.948 75.254 37.292 22.515 
73.178 40.192 22.714 74.065 39.369 19.625 77.235 36.246 20.07 
78.103 35.599 23.392 72.891 37.949 20.673 75.962 34.439 20.479 
73.816 36.293 20.168 63.41 39.054 8.0122 64.271 39.885 10.226 
66.033 38.441 11.779 66.489 39.727 7.2449 67.785 38.328 8.7951 
65.733 35.429 8.9713 66.804 36.175 11.152 67.054 49.081 21.33 
65.66 50.238 20.063 64.829 49.373 18.011 66.165 48.121 19.363 
62.748 50.122 7.8019 65.88 47.397 11.236 65.324 49.759 11.721 
65.001 46.507 9.239 63.782 47.776 7.9343 62.292 46.697 11.954 
81.144 62.581 39.255 79.009 66.4 38.345 74.905 70.634 33.745 
74.291 61.426 34.354 78.642 71.876 44.091 70.493 63.404 26.745 
68.87 64.612 25.566 88.22 49.616 43.012 90.6 55.261 49.266 
86.324 59.529 44.785 82.082 52.031 38.042 80.371 53.316 36.788 
84.749 54.545 38.713 83.063 55.714 37.397 84.615 66.631 49.621 
82.99 67.928 48.334 86.141 47.139 34.061 88.843 36.252 30.781 
90.583 37.541 32.717 89.598 39.241 33.879 78.338 44.552 26.586 
[...]
POINT_DATA 8612
FIELD FieldData 11
Psi_ab 1 8612 double
0.94516 0.72488 0.75146 0.92376 0.78747 0.98604 0.97719 0.97699 0.97399 
0.96071 0.96636 0.99997 0.98176 0.9834 0.96827 0.97389 0.9698 0.96431 
0.96214 0.99087 0.99491 0.78771 0.8296 0.84989 0.89939 0.96045 0.95899 
0.96308 0.99595 0.95357 0.91968 0.91399 0.90784 0.91454 0.89041 0.9999 
0.88863 0.89989 0.86065 0.85094 0.90903 0.90126 0.81772 0.85541 0.83241 
0.8087 0.83632 0.77302 0.93945 0.95625 0.95558 0.94951 0.94546 0.93348 
0.94039 0.92918 0.92752 0.93191 0.9359 0.92195 0.92802 0.91868 0.87322 
0.87293 0.8823 0.88927 0.8579 0.90105 0.89157 0.91332 0.91064 0.9411 
0.93588 0.98624 0.96587 0.81653 0.80926 0.79914 0.87959 0.92489 0.94205 
0.73947 0.90498 0.88009 0.94643 0.82469 0.92164 0.9189 0.98224 0.96832 
0.9786 0.97599 0.96558 0.83927 0.81245 0.99135 0.80196 0.7916 0.78555 
0.86401 0.81573 0.79467 0.78111 0.96167 0.95843 0.91518 0.87178 0.93249 
0.92931 0.95061 0.78466 0.79959 1 1 1 1 1 
1 1 1 1 1 1 1 1 1 
1 1 1 1 1 1 1 1 1 
1 1 1 1 1 1 1 1 1 
1 1 1 1 1 1 1 1 1 
1 1 1 1 1 1 1 1 1 
1 1 1 1 1 1 1 1 1 
1 1 1 1 1 1 1 1 1 
1 1 1 1 1 1 1 1 1 
1 1 1 1 1 1 1 1 1 
1 1 1 1 1 1 1 1 1 
1 1 1 1 1 1 1 1 1 
1 1 1 1 1 1 1 1 1 
1 1 1 1 1 1 1 1 1 
1 1 1 1 1 1 1 1 1 
1 1 1 1 1 1 1 1 1 
1 1 1 1 1 1 1 1 1 
1 1 1 1 1 1 1 1 1 
1 1 1 1 1 1 1 1 1 
1 1 1 1 1 1 1 1 1 
1 1 1 1 1 1 1 1 1 
1 1 1 1 1 1 1 1 1 
1 1 1 1 1 1 1 1 1 
1 1 1 1 1 1 1 1 1 
1 1 1 1 1 1 1 1 1 
1 1 1 1 1 1 0.9793 0.9103 0.93209 
0.98433 0.96728 0.99196 0.79097 0.99583 0.87281 0.99381 0.83663 0.98203 
0.95709 0.93429 0.73859 0.99624 0.92892 0.9147 0.96803 0.9464 0.95012 
0.98514 0.99343 0.91778 0.90713 0.89596 0.91223 0.91194 0.915 0.91726 
0.9243 0.97129 0.9842 0.97429 0.97515 0.9815 0.89018 0.88961 0.83859 
0.84875 0.66603 0.98453 0.98316 0.98116 0.98554 0.9772 0.98321 0.98012 
0.97922 0.98643 0.98723 0.98472 0.98396 0.99061 0.98807 0.97384 0.9706 
0.97051 0.97376 0.97425 0.97459 0.97708 0.97127 0.97821 0.97757 0.97475 
0.97543 0.95845 0.95383 0.95425 0.96498 0.96395 0.95339 0.96349 0.96382 
0.959 0.95821 0.9861 0.98881 0.98736 0.98377 0.96992 0.96591 0.97014 
0.96987 0.97413 0.97266 0.9677 0.97449 0.97439 0.97534 0.99553 0.99274 
0.99061 0.99494 0.99295 0.99444 0.99156 0.97454 0.97719 0.98073 0.97829 
0.99395 0.98883 0.98803 0.99182 0.99365 0.99041 0.9199 0.92672 0.94279 
0.94135 0.9156 0.95773 0.96199 0.90385 0.8714 0.89362 0.92336 0.92823 
0.91633 0.92187 0.88216 0.89108 0.92989 0.94657 0.94111 0.93698 0.95238 
0.9501 0.95237 0.95054 0.94006 0.93596 0.93822 0.94195 0.94747 0.94409 
0.88601 0.88416 0.8767 0.87526 0.86296 0.91811 0.91156 0.90936 0.90177 
0.91559 0.90868 0.88625 0.82806 0.84123 0.82801 0.85344 0.83774 0.84466 
0.84803 0.83253 0.88232 0.87245 0.8643 0.87465 0.92419 0.91661 0.92032 
0.92824 0.93174 0.93219 0.94551 0.93659 0.95875 0.96066 0.93028 0.9526 
0.95415 0.9528 0.98148 0.98097 0.99637 0.99823 0.99073 0.99407 0.99379 
0.94797 0.99585 0.98806 0.98612 0.98896 0.97704 0.98032 0.97797 0.98832 
0.99134 0.9546 0.91047 0.90165 0.91649 0.90836 0.94012 0.93591 0.95959 
0.9949 0.99709 0.99785 0.99325 0.99659 0.76372 0.7367 0.75486 0.77864 
0.76214 0.78658 0.79404 0.82709 0.80946 0.79514 0.81128 0.75745 0.73265 
0.77368 0.76149 0.77786 0.8365 0.80728 0.82745 0.8183 0.79838 0.7578 
0.78322 0.77902 0.79582 0.87918 0.86731 0.85123 0.84802 0.82531 0.79721 
0.80021 0.80658 0.8474 0.85535 0.83638 0.83926 0.84094 0.85267 0.86415 
0.86908 0.85774 0.9073 0.93704 0.92932 0.91966 0.9163 0.92731 0.91164 
0.91897 0.85685 0.86866 0.87951 0.86675 0.86149 0.86923 0.87025 0.88319 
0.88185 0.88731 0.99595 0.99132 0.98924 0.99098 0.99295 0.99826 0.99562 
0.9979 0.99752 0.99926 0.99755 0.97091 0.97701 0.97304 0.98192 0.97853 
0.99545 0.99529 0.89428 0.87985 0.91866 0.91623 0.92018 0.92141 0.9256 
0.91028 0.95935 0.96532 0.95042 0.93893 0.94271 0.89966 0.89983 0.88858 
0.88968 0.87718 0.88856 0.90747 0.89914 0.89864 0.92796 0.93035 0.9424 
0.94118 0.9403 0.94776 0.96911 0.97622 0.90585 0.91036 0.90714 0.90231 
0.92505 0.92915 0.92271 0.92946 0.92352 0.9167 0.99664 0.99601 0.99795 
0.85301 0.80409 0.78116 0.84614 0.85755 0.8664 0.85509 0.79573 0.82162 
0.80802 0.8007 0.83734 0.82492 0.68716 0.71471 0.70744 0.98249 0.98786 
0.98201 0.98477 0.98543 0.98458 0.98731 0.98479 0.98494 0.9822 0.99392 
0.99782 0.99542 0.994 0.99563 0.99271 0.99186 0.99693 0.99505 0.99394 
0.99329 0.99589 0.99886 0.98857 0.98874 0.98661 0.99066 0.96937 0.98138 
0.9773 0.97268 0.97899 0.97132 0.96211 0.96009 0.96423 0.96899 0.96497 
0.98066 0.97534 0.97765 0.97255 0.99499 0.99578 0.94654 0.94892 0.94054 
0.94687 0.93309 0.93783 0.93972 0.93482 0.94988 0.95431 0.95173 0.94729 
0.89698 0.90327 0.92111 0.91536 0.9067 0.91321 0.90422 0.86583 0.87756 
0.86703 0.87646 0.88526 0.86597 0.87354 0.89443 0.88841 0.89369 0.89925 
0.88312 0.87775 0.88357 0.92674 0.92156 0.93562 0.93077 0.93514 0.93905 
0.92237 0.92621 0.94736 0.94324 0.94027 0.94365 0.98691 0.97962 0.97437 
0.93797 0.9621 0.98147 0.98545 0.99226 0.99383 0.97688 0.98187 0.97663 
0.97597 0.99459 0.98852 0.99392 0.97382 0.97652 0.9709 0.97365 0.98017 
0.98885 0.97708 0.97969 0.9855 0.96732 0.96488 0.97103 0.96808 0.97149 
0.97128 0.97429 0.97415 0.98055 0.95389 0.95587 0.96271 0.95643 0.94574 
0.93953 0.94928 0.93549 0.94546 0.95662 0.94641 0.94962 0.953 0.94263 
0.96744 0.96078 0.95965 0.96973 0.96582 0.95395 0.96323 0.95965 0.95678 
0.95448 0.953 0.95822 0.95255 0.94615 0.95617 0.9439 0.95053 0.94878 
0.96015 0.94868 0.958 0.96616 0.96829 0.9711 0.96549 0.96325 0.96792 
0.96441 0.97201 0.96909 0.9349 0.93667 0.9452 0.94511 0.95101 0.92265 
0.91825 0.92449 0.94541 0.94169 0.9398 0.95146 0.93842 0.92997 0.92698 
0.93326 0.94441 0.94138 0.9574 0.94822 0.94227 0.95335 0.93132 0.92805 
0.92536 0.93377 0.93998 0.96023 0.96243 0.95818 0.95345 0.94934 0.96057 
0.94996 0.96442 0.97164 0.9703 0.95905 0.96277 0.96316 0.96901 0.98126 
0.97312 0.97535 0.97786 0.97255 0.95014 0.95543 0.96365 0.95423 0.97313 
0.98275 0.97881 0.97753 0.96072 0.94077 0.95242 0.94628 0.9817 0.99688 
0.99534 0.99242 0.99032 0.98803 0.99255 0.98586 0.98675 0.99057 0.98596 
0.9847 0.98843 0.97441 0.98234 0.97809 0.97203 0.97997 0.97421 0.96253 
0.98412 0.99136 0.98821 0.98196 0.99332 0.99414 0.98228 0.97928 0.97647 
0.98234 0.97406 0.99454 0.98509 0.98769 0.9823 0.94851 0.94758 0.95033 
0.94351 0.94459 0.9467 0.94692 0.94138 0.93605 0.93234 0.93927 0.94049 
0.93601 0.93904 0.93511 0.94675 0.94577 0.94656 0.93927 0.93743 0.93328 
0.92777 0.92096 0.92754 0.93483 0.9275 0.95367 0.95666 0.95318 0.94331 
0.93763 0.93488 0.94236 0.93167 0.9271 0.93058 0.93448 0.94083 0.90923 
0.92387 0.91495 0.91361 0.94322 0.94618 0.94264 0.95304 0.94934 0.93216 
0.93735 0.94521 0.91792 0.92935 0.92838 0.9189 0.91301 0.91708 0.8736 
0.86766 0.87489 0.89202 0.89917 0.89643 0.90697 0.85984 0.85417 0.86667 
0.87222 0.86024 0.87292 0.86184 0.90058 0.88562 0.88138 0.88839 0.86762 
0.88895 0.88483 0.8738 0.86677 0.90519 0.8993 0.90406 0.89517 0.86281 
0.87226 0.8718 0.88058 0.84223 0.85503 0.8639 0.85316 0.84899 0.85795 
0.84495 0.86879 0.86295 0.88078 0.86734 0.88268 0.88711 0.88132 0.85281 
0.8553 0.84416 0.87023 0.85785 0.84458 0.84305 0.91537 0.91356 0.92631 
0.91983 0.90431 0.90152 0.90763 0.92822 0.89913 0.89518 0.89005 0.89015 
0.90969 0.89361 0.90041 0.904 0.92296 0.91299 0.93372 0.92705 0.89736 
0.90551 0.91152 0.88906 0.8892 0.91984 0.94749 0.94309 0.9563 0.94878 
0.95888 0.95288 0.95282 0.94623 0.94331 0.93942 0.94613 0.94148 0.94885 
0.93947 0.9456 0.94452 0.94488 0.94463 0.93766 0.93294 0.92766 0.93642 
0.93915 0.93282 0.92655 0.92627 0.95218 0.94483 0.9382 0.9539 0.95069 
0.94719 0.93606 0.98731 0.99294 0.9958 0.9965 0.99817 0.99673 0.99841 
0.99658 0.99969 0.99882 0.99949 0.99913 0.99641 0.98689 0.98407 0.98038 
0.98346 0.99421 0.99206 0.99647 0.99219 0.99446 0.99622 0.99361 0.99409 
0.99772 0.99265 0.99704 0.99148 0.99398 0.99136 0.99398 0.99194 0.9887 
0.98999 0.98983 0.98972 0.98645 0.98588 0.99297 0.99144 0.99028 0.98741 
0.96762 0.97103 0.96616 0.96189 0.96107 0.97301 0.96981 0.96882 0.96989 
0.97206 0.96478 0.97199 0.96397 0.97211 0.96778 0.97395 0.97769 0.97676 
0.97948 0.98019 0.97399 0.97774 0.97585 0.97613 0.98295 0.97853 0.98674 
0.98326 0.97977 0.98977 0.98271 0.98687 0.98063 0.97195 0.97544 0.97821 
0.97259 0.9652 0.97218 0.97002 0.97968 0.97603 0.97622 0.9749 0.97426 
0.98803 0.99296 0.99892 0.98705 0.98347 0.97942 0.98303 0.97914 0.98274 
0.96942 0.97499 0.97467 0.97418 0.97887 0.97005 0.95846 0.96357 0.95953 
0.96476 0.96942 0.97389 0.97691 0.97388 0.98042 0.97837 0.96444 0.96915 
0.95964 0.96041 0.98646 0.98974 0.98605 0.99264 0.99627 0.99475 0.99058 
0.98784 0.99734 0.99539 0.99779 0.99353 0.99254 0.99215 0.98913 0.9888 
0.99368 0.99058 0.9453 0.95214 0.94921 0.94373 0.95539 0.95688 0.95442 
0.94801 0.94119 0.94234 0.95385 0.99685 0.99595 0.96758 0.97042 0.96953 
0.97773 0.98794 0.98616 0.97994 0.96553 0.96784 0.96377 0.99102 0.98987 
0.98329 0.98521 0.98007 0.98121 0.98557 0.99347 0.98872 0.99004 0.98449 
0.99311 0.99525 0.99132 0.96915 0.97031 0.97573 0.97473 0.96925 0.9619 
0.95382 0.95963 0.9603 0.9644 0.9612 0.95399 0.95086 0.95798 0.96166 
0.96571 0.96825 0.97362 0.95403 0.95764 0.9612 0.94676 0.97282 0.96797 
0.97494 0.96366 0.95583 0.95382 0.95835 0.9627 0.94706 0.95385 0.973 
0.98907 0.9854 0.98666 0.97599 0.97982 0.96336 0.96669 0.96632 0.97894 
0.97171 0.9831 0.98736 0.99226 0.99082 0.95684 0.97777 0.98104 0.97972 
0.97627 0.99482 0.99213 0.99315 0.98409 0.98216 0.98617 0.99081 0.99599 
0.98708 0.9897 0.99746 0.99808 0.99879 0.99454 0.99285 0.98973 0.99124 
0.98895 0.99557 0.9964 0.99849 0.9986 0.99766 0.99001 0.98921 0.99158 
0.99796 0.99664 0.99189 0.99318 0.99011 0.9884 0.98952 0.98723 0.99008 
0.99576 0.99882 0.99714 0.99613 0.99581 0.99678 0.99428 0.99237 0.99275 
0.98223 0.98538 0.9874 0.99204 0.98979 0.98752 0.98711 0.98956 0.97648 
0.9768 0.97955 0.97995 0.98612 0.98323 0.98379 0.98822 0.9851 0.99016 
0.98848 0.98769 0.98219 0.98306 0.98683 0.97672 0.97941 0.97965 0.98013 
0.97929 0.97658 0.98194 0.98199 0.98458 0.98704 0.9821 0.9871 0.84046 
0.83626 0.57724 0.59215 0.74184 0.73825 0.83172 0.82785 0.82216 0.81715 
0.83104 0.80626 0.81556 0.82598 0.75787 0.78409 0.77956 0.79862 0.79496 
0.86467 0.87366 0.84283 0.85285 0.86198 0.86293 0.82568 0.8384 0.81092 
0.83353 0.82005 0.83987 0.83113 0.82546 0.82198 0.83999 0.76213 0.85301 
0.85113 0.86297 0.86359 0.83789 0.8639 0.99728 0.99804 0.99599 0.99448 
0.99294 0.99741 0.99395 0.99623 0.99591 0.99673 0.99823 0.99845 0.99627 
0.99792 0.99575 0.99629 0.99664 0.99539 0.992 0.99079 0.98864 0.99319 
0.99029 0.99168 0.9409 0.94715 0.95202 0.93892 0.93549 0.95461 0.95901 
0.95295 0.96124 0.94709 0.95459 0.94943 0.95676 0.93787 0.92992 0.92633 
0.93071 0.94571 0.92188 0.92579 0.93384 0.92996 0.92198 0.91787 0.94159 
0.91557 0.90766 0.90132 0.89942 0.91034 0.9158 0.9183 0.9449 0.93713 
0.93539 0.92983 0.92198 0.92734 0.93217 0.92756 0.93703 0.92309 0.92034 
0.94547 0.88965 0.88795 0.90403 0.89111 0.89869 0.88243 0.89802 0.89774 
0.89301 0.91271 0.90848 0.9042 0.90385 0.89451 0.91541 0.91815 0.91292 
0.90873 0.90195 0.91435 0.90664 0.914 0.91705 0.91299 0.9216 0.88863 
0.89865 0.90742 0.91562 0.89898 0.90761 0.90808 0.89904 0.91609 0.91507 
0.92167 0.91508 0.92945 0.92869 0.89855 0.9618 0.96381 0.96474 0.95852 
0.95777 0.95495 0.96012 0.96359 0.9565 0.96108 0.95161 0.9535 0.95382 
0.96028 0.95637 0.9482 0.93905 0.94267 0.94614 0.94065 0.93683 0.94425 
0.93263 0.93863 0.93476 0.99383 0.99693 0.95548 0.98883 0.98188 0.95535 
0.96035 0.94961 0.95765 0.95094 0.97505 0.96475 0.96131 0.96721 0.96167 
0.95639 0.95297 0.99108 0.99452 0.9645 0.96619 0.97027 0.95749 0.95216 
0.95311 0.9905 0.98496 0.98703 0.99361 0.96553 0.97008 0.9752 0.97212 
0.98003 0.97065 0.98061 0.97165 0.96295 0.95986 0.96169 0.95062 0.96321 
0.96611 0.96584 0.96443 0.96575 0.97154 0.96704 0.95404 0.96174 0.95972 
0.96095 0.9602 0.9652 0.95833 0.95543 0.9502 0.95665 0.94772 0.94995 
0.9544 0.95147 0.94471 0.94112 0.94673 0.9522 0.97724 0.96919 0.96176 
0.96662 0.96731 0.96756 0.96474 0.9689 0.95487 0.94751 0.9573 0.93759 
0.93474 0.93296 0.94612 0.93829 0.94131 0.94308 0.94655 0.94754 0.94883 
0.94291 0.93661 0.93245 0.92864 0.93479 0.94427 0.96195 0.96447 0.96884 
0.96646 0.97227 0.96994 0.96665 0.97273 0.97136 0.97235 0.99226 0.98981 
0.99332 0.98739 0.99195 0.98598 0.99595 0.99142 0.9966 0.99506 0.99685 
0.98953 0.99462 0.98847 0.99612 0.99706 0.9969 0.98261 0.98837 0.98132 
0.99343 0.99742 0.9942 0.99781 0.99544 0.99134 0.9969 0.99434 0.99729 
0.99691 0.99757 0.99636 0.99311 0.99094 0.98785 0.98385 0.98212 0.98572 
0.98939 0.99202 0.99839 0.99792 0.99246 0.99505 0.99731 0.99361 0.99565 
0.99844 0.99661 0.98212 0.9979 0.99667 0.99739 0.99526 0.98986 0.99178 
0.99353 0.99473 0.993 0.99413 0.98719 0.98517 0.98646 0.98998 0.98846 
0.99321 0.97439 0.97568 0.97657 0.97984 0.97567 0.97773 0.981 0.97256 
0.98118 0.98029 0.9793 0.98326 0.9738 0.96994 0.96879 0.97117 0.96675 
0.97836 0.97377 0.97249 0.97516 0.97502 0.97831 0.96834 0.96705 0.97242 
0.96968 0.97148 0.9698 0.97624 0.98633 0.98506 0.99261 0.99791 0.99135 
0.98971 0.99178 0.98822 0.86417 0.86484 0.85241 0.85181 0.94217 0.93576 
0.93191 0.93992 0.93641 0.93049 0.93325 0.93498 0.94269 0.93697 0.94871 
0.94328 0.94398 0.93855 0.95095 0.93596 0.92812 0.93193 0.92385 0.92354 
0.91858 0.92455 0.90321 0.91069 0.91599 0.908 0.9093 0.89624 0.89972 
0.90449 0.88971 0.89914 0.89093 0.92889 0.91912 0.92639 0.92193 0.91382 
0.9165 0.92196 0.92394 0.91089 0.91405 0.91191 0.90219 0.90712 0.89844 
0.92245 0.9253 0.92014 0.93065 0.92805 0.87663 0.87667 0.89005 0.88048 
0.87795 0.86618 0.86442 0.90037 0.89586 0.89228 0.8897 0.89092 0.8851 
0.88853 0.9098 0.90665 0.87908 0.87819 0.89009 0.94329 0.94648 0.95639 
0.94548 0.93456 0.93046 0.92565 0.936 0.95005 0.95686 0.9623 0.95597 
0.94375 0.95004 0.95544 0.9509 0.94947 0.94353 0.96373 0.95731 0.96516 
0.96339 0.9578 0.96661 0.92157 0.91056 0.91603 0.92437 0.91306 0.88918 
0.94008 0.93643 0.91982 0.91974 0.93309 0.91677 0.84035 0.82489 0.83836 
0.92093 0.90892 0.90635 0.92322 0.9263 0.91149 0.90407 0.8765 0.89483 
0.88754 0.90026 0.89744 0.88273 0.87772 0.86607 0.87731 0.86328 0.85544 
0.87203 0.85648 0.84603 0.77319 0.99602 0.99209 0.98896 0.99098 0.9968 
0.99486 0.97677 0.99248 0.9939 0.99585 0.99095 0.98405 0.99254 0.98661 
0.99531 0.98961 0.99486 0.97791 0.97167 0.9822 0.96859 0.97524 0.98006 
0.97107 0.9888 0.99481 0.98894 0.97716 0.97394 0.98302 0.98702 0.99112 
0.9874 0.98683 0.9804 0.99637 0.9849 0.96914 0.97461 0.97034 0.96279 
0.96196 0.95668 0.95647 0.97904 0.97339 0.97666 0.9684 0.9584 0.96122 
0.9709 0.9671 0.96192 0.98485 0.97668 0.97996 0.98265 0.97084 0.97211 
0.9778 0.96495 0.95383 0.94872 0.98026 0.99386 0.96288 0.97403 0.97082 
0.96558 0.97141 0.95318 0.94924 0.95994 0.95298 0.96553 0.96713 0.96319 
0.94238 0.95018 0.95717 0.9635 0.96118 0.9944 0.99295 0.98708 0.99185 
0.99022 0.98464 0.97947 0.98657 0.97731 0.98463 0.98381 0.96795 0.98185 
0.97728 0.99304 0.98602 0.98095 0.99404 0.98702 0.98119 0.98409 0.98443 
0.99016 0.99553 0.99359 0.99577 0.99317 0.98228 0.96667 0.96917 0.97535 
0.97151 0.9647 0.99108 0.98977 0.96446 0.96801 0.98117 0.97495 0.98442 
0.99122 0.96729 0.97825 0.98974 0.99602 0.99691 0.99671 0.99774 0.99892 
0.99443 0.99388 0.99484 0.99518 0.99788 0.99608 0.99539 0.99666 0.998 
0.99673 0.99516 0.99783 0.99844 0.99628 0.99694 0.99801 0.9984 0.99531 
0.9983 0.99551 0.99797 0.99708 0.99331 0.98428 0.9852 0.98592 0.99683 
0.99456 0.99273 0.99501 0.99585 0.99173 0.99648 0.98793 0.99031 0.99721 
0.99692 0.99632 0.99471 0.9948 0.99682 0.99756 0.99433 0.99333 0.99713 
0.9949 0.99749 0.99528 0.99159 0.99363 0.98887 0.99678 0.99582 0.99456 
0.99682 0.99481 0.98031 0.98695 0.98258 0.98781 0.99198 0.99439 0.99279 
0.97943 0.98307 0.98538 0.97856 0.97666 0.97262 0.97793 0.97048 0.98057 
0.97359 0.99073 0.98894 0.99221 0.97773 0.9751 0.98473 0.98261 0.98687 
0.98894 0.98625 0.99141 0.98788 0.99365 0.9887 0.99461 0.99094 0.99555 
0.99552 0.99171 0.98394 0.98189 0.98366 0.98715 0.99142 0.98693 0.99129 
0.98951 0.9958 0.9814 0.98689 0.98945 0.98217 0.99188 0.98405 0.98668 
0.99565 0.89368 0.90307 0.9106 0.90002 0.90025 0.91061 0.88875 0.88482 
0.89377 0.90424 0.90715 0.88851 0.90352 0.90682 0.89223 0.90153 0.90586 
0.89685 0.8932 0.88956 0.88007 0.8985 0.89375 0.87655 0.88351 0.88779 
0.89755 0.85908 0.87222 0.87618 0.8833 0.88461 0.8835 0.89402 0.90179 
0.90251 0.88736 0.8861 0.88542 0.89661 0.89977 0.8771 0.87748 0.86646 
0.87518 0.86505 0.87471 0.86013 0.87205 0.87892 0.88413 0.87787 0.87768 
0.86849 0.88602 0.84056 0.878 0.86838 0.83931 0.86655 0.88179 0.89161 
0.87171 0.92775 0.92613 0.91737 0.92503 0.91626 0.9206 0.90213 0.91373 
0.92061 0.90991 0.89028 0.90066 0.91658 0.93755 0.93043 0.92383 0.92044 
0.94396 0.92208 0.91034 0.90165 0.90809 0.93807 0.93121 0.94837 0.94425 
0.9069 0.91189 0.9009 0.91467 0.90186 0.91119 0.88628 0.88999 0.89578 
0.8629 0.8695 0.88046 0.86766 0.88072 0.86691 0.87618 0.88806 0.85318 
0.85345 0.86552 0.87096 0.86835 0.87694 0.87208 0.8819 0.8796 0.86008 
0.85999 0.84956 0.84899 0.86845 0.85436 0.84441 0.85245 0.83528 0.84664 
0.84574 0.85029 0.8425 0.83606 0.87282 0.87305 0.86237 0.85531 0.85869 
0.84221 0.82761 0.85331 0.83733 0.83223 0.84651 0.83062 0.82125 0.82654 
0.82151 0.85671 0.85315 0.81497 0.8139 0.82012 0.80669 0.725 0.77091 
0.74145 0.7366 0.78455 0.76904 0.79885 0.83058 0.83458 0.81152 0.82583 
0.80845 0.82567 0.8437 0.86229 0.8539 0.86861 0.86221 0.84441 0.85424 
0.84745 0.83635 0.84582 0.84478 0.83058 0.85625 0.85782 0.85471 0.8471 
0.85 0.82196 0.83573 0.79129 0.82842 0.80032 0.77012 0.76305 0.85894 
0.85722 0.84083 0.84695 0.88182 0.88757 0.86168 0.85518 0.86459 0.8563 
0.81775 0.82775 0.87903 0.8797 0.87149 0.88107 0.88428 0.87601 0.87126 
0.86545 0.89064 0.89343 0.8886 0.89814 0.90101 0.89308 0.82707 0.82873 
0.80475 0.79812 0.81262 0.75988 0.78027 0.8116 0.79732 0.8107 0.82688 
0.76742 0.78046 0.79196 0.8036 0.81429 0.82532 0.78653 0.80115 0.76274 
0.72874 0.678 0.73047 0.81527 0.83228 0.69142 0.72018 0.78648 0.79453 
0.6961 0.80249 0.80314 0.81094 0.82862 0.83738 0.83247 0.8472 0.86178 
0.86031 0.84721 0.83766 0.84767 0.82563 0.87479 0.86725 0.86677 0.8461 
0.83792 0.81195 0.83173 0.79581 0.81875 0.78416 0.79813 0.75575 0.77688 
0.77132 0.79176 0.7473 0.8277 0.85069 0.85882 0.84298 0.55892 0.67592 
0.64405 0 0.61263 0.63852 0.56156 0.79716 0.81612 0.78914 0.82116 
0.79363 0.77335 0.8121 0.79495 0.78589 0.81893 0.81516 0.70228 0.68197 
0.67902 0.72031 0.75066 0.71891 0.71657 0.72719 0.73268 0.77473 0.79787 
0.77947 0.83141 0.83003 0.80369 0.82091 0.83838 0.81273 0.85745 0.84372 
0.84786 0.79146 0.80943 0.82636 0.85547 0.84209 0.85627 0.78104 0.75998 
0.75064 0.81751 0.7954 0.80571 0.8229 0.79937 0.74787 0.72842 0.75174 
0.77567 0.77771 0.8137 0.77157 0.7879 0.80216 0.77368 0.81293 0.79581 
0.8107 0.81661 0.75084 0.72522 0.7034 0.70277 0.71964 0.74113 0.79956 
0.78919 0.76552 0.99866 0.99835 0.99524 0.99642 0.99161 0.98998 0.99123 
0.99267 0.99195 0.9954 0.99372 0.9981 0.99852 0.99705 0.99258 0.99008 
0.98806 0.99078 0.99864 0.99792 0.9965 0.99438 0.99582 0.99607 0.99406 
0.99212 0.98703 0.98326 0.98108 0.98407 0.97804 0.97884 0.98198 0.9844 
0.98527 0.98612 0.98895 0.99745 0.9978 0.99536 0.99032 0.99087 0.9931 
0.99757 0.99268 0.99488 0.99843 0.99464 0.9938 0.99574 0.99809 0.97979 
0.98258 0.98322 0.97748 0.94869 0.9469 0.94628 0.94436 0.93846 0.91794 
0.9145 0.9001 0.90918 0.94682 0.9411 0.94395 0.93197 0.92891 0.93501 
0.93105 0.9338 0.92824 0.93799 0.93977 0.93204 0.96005 0.95245 0.95893 
0.95049 0.9394 0.94845 0.93558 0.98358 0.98064 0.97471 0.9697 0.9623 
0.97634 0.98664 0.99523 0.99366 0.99191 0.99626 0.9975 0.93035 0.92665 
0.96804 0.97235 0.97012 0.98966 0.99163 0.9812 0.99494 0.97946 0.98144 
0.98102 0.9843 0.98379 0.99332 0.98871 0.97129 0.95666 0.98577 0.98748 
0.9923 0.99087 0.99693 0.92706 0.92143 0.92199 0.9382 0.92824 0.93652 
0.94007 0.93528 0.92929 0.93055 0.9235 0.91246 0.92616 0.91948 0.91777 